# Converted from POSCAR to lammps format

1064 atoms
7 atom types

0.000000   19.693001   xlo xhi
0.000000   19.775352   ylo yhi
0.000000   31.804227   zlo zhi

0.000000    0.000000    0.000000   xy xz yz

Atoms

   1  1  2.313931 1.464130 4.910573
   2  1  2.039727 1.283739 20.812686
   3  1  2.335692 11.351806 4.910573
   4  1  2.061489 11.171416 20.812686
   5  1  12.160431 1.464130 4.910573
   6  1  11.886228 1.283739 20.812686
   7  1  12.182192 11.351806 4.910573
   8  1  11.907989 11.171416 20.812686
   9  1  7.094692 6.407061 12.948614
  10  1  6.820489 6.226670 28.850728
  11  1  7.116453 16.294737 12.948614
  12  1  6.842250 16.114346 28.850728
  13  1  16.941192 6.407061 12.948614
  14  1  16.666989 6.226670 28.850728
  15  1  16.962953 16.294737 12.948614
  16  1  16.688750 16.114346 28.850728
  17  1  7.359420 8.251583 4.957802
  18  1  7.085217 8.071192 20.859915
  19  1  7.381181 18.139259 4.957802
  20  1  7.106978 17.958868 20.859915
  21  1  17.205920 8.251583 4.957802
  22  1  16.931717 8.071192 20.859915
  23  1  17.227682 18.139259 4.957802
  24  1  16.953479 17.958868 20.859915
  25  1  2.477963 3.098644 12.966107
  26  1  2.203760 2.918253 28.868220
  27  1  2.499724 12.986320 12.966107
  28  1  2.225521 12.805929 28.868220
  29  1  12.324463 3.098644 12.966107
  30  1  12.050260 2.918253 28.868220
  31  1  12.346224 12.986320 12.966107
  32  1  12.072021 12.805929 28.868220
  33  1  8.201877 2.344606 4.912481
  34  1  7.927674 2.164215 20.814594
  35  1  8.223638 12.232282 4.912481
  36  1  7.949435 12.051892 20.814594
  37  1  18.048377 2.344606 4.912481
  38  1  17.774174 2.164215 20.814594
  39  1  18.070138 12.232282 4.912481
  40  1  17.795935 12.051892 20.814594
  41  1  3.184169 7.161567 12.906950
  42  1  2.909966 6.981177 28.809064
  43  1  3.205930 17.049243 12.906950
  44  1  2.931727 16.868853 28.809064
  45  1  13.030670 7.161567 12.906950
  46  1  12.756466 6.981177 28.809064
  47  1  13.052431 17.049243 12.906950
  48  1  12.778228 16.868853 28.809064
  49  1  1.424149 7.389890 4.956212
  50  1  1.149945 7.209499 20.858325
  51  1  1.445910 17.277566 4.956212
  52  1  1.171707 17.097175 20.858325
  53  1  11.270649 7.389890 4.956212
  54  1  10.996446 7.209499 20.858325
  55  1  11.292410 17.277566 4.956212
  56  1  11.018207 17.097175 20.858325
  57  1  6.389894 2.489153 12.967379
  58  1  6.115691 2.308762 28.869492
  59  1  6.411655 12.376829 12.967379
  60  1  6.137452 12.196438 28.869492
  61  1  16.236394 2.489153 12.967379
  62  1  15.962191 2.308762 28.869492
  63  1  16.258155 12.376829 12.967379
  64  1  15.983952 12.196438 28.869492
  65  1  7.308545 1.467284 2.985145
  66  1  7.034341 1.286894 18.887258
  67  1  7.330306 11.354960 2.985145
  68  1  7.056103 11.174570 18.887258
  69  1  17.155045 1.467284 2.985145
  70  1  16.880842 1.286894 18.887258
  71  1  17.176806 11.354960 2.985145
  72  1  16.902603 11.174570 18.887258
  73  1  2.400423 6.393916 10.891040
  74  1  2.126220 6.213525 26.793153
  75  1  2.422184 16.281592 10.891040
  76  1  2.147981 16.101201 26.793153
  77  1  12.246923 6.393916 10.891040
  78  1  11.972720 6.213525 26.793153
  79  1  12.268685 16.281592 10.891040
  80  1  11.994481 16.101201 26.793153
  81  1  2.372685 8.355619 3.099640
  82  1  2.098482 8.175228 19.001754
  83  1  2.394446 18.243295 3.099640
  84  1  2.120243 18.062905 19.001754
  85  1  12.219186 8.355619 3.099640
  86  1  11.944983 8.175228 19.001754
  87  1  12.240947 18.243295 3.099640
  88  1  11.966744 18.062905 19.001754
  89  1  7.153383 3.246474 10.943039
  90  1  6.879180 3.066083 26.845153
  91  1  7.175144 13.134150 10.943039
  92  1  6.900941 12.953760 26.845153
  93  1  16.999884 3.246474 10.943039
  94  1  16.725681 3.066083 26.845153
  95  1  17.021645 13.134150 10.943039
  96  1  16.747442 12.953760 26.845153
  97  1  1.324277 2.462676 3.098527
  98  1  1.050074 2.282285 19.000640
  99  1  1.346038 12.350352 3.098527
 100  1  1.071835 12.169961 19.000640
 101  1  11.170777 2.462676 3.098527
 102  1  10.896574 2.282285 19.000640
 103  1  11.192539 12.350352 3.098527
 104  1  10.918335 12.169961 19.000640
 105  1  6.289657 7.221240 10.958783
 106  1  6.015454 7.040850 26.860896
 107  1  6.311418 17.108917 10.958783
 108  1  6.037215 16.928526 26.860896
 109  1  16.136157 7.221240 10.958783
 110  1  15.861954 7.040850 26.860896
 111  1  16.157919 17.108917 10.958783
 112  1  15.883715 16.928526 26.860896
 113  1  8.211392 7.420303 2.989915
 114  1  7.937189 7.239912 18.892029
 115  1  8.233154 17.307979 2.989915
 116  1  7.958950 17.127588 18.892029
 117  1  18.057893 7.420303 2.989915
 118  1  17.783690 7.239912 18.892029
 119  1  18.079654 17.307979 2.989915
 120  1  17.805451 17.127588 18.892029
 121  1  3.129483 2.462152 10.867346
 122  1  2.855280 2.281762 26.769459
 123  1  3.151245 12.349829 10.867346
 124  1  2.877041 12.169438 26.769459
 125  1  12.975984 2.462152 10.867346
 126  1  12.701781 2.281762 26.769459
 127  1  12.997745 12.349829 10.867346
 128  1  12.723542 12.169438 26.769459
 129  1  7.285134 8.197098 10.963713
 130  1  7.010930 8.016707 26.865826
 131  1  7.306895 18.084774 10.963713
 132  1  7.032692 17.904384 26.865826
 133  1  17.131634 8.197098 10.963713
 134  1  16.857431 8.016707 26.865826
 135  1  17.153395 18.084774 10.963713
 136  1  16.879192 17.904384 26.865826
 137  1  2.300124 3.452595 3.101548
 138  1  2.025921 3.272205 19.003662
 139  1  2.321885 13.340272 3.101548
 140  1  2.047682 13.159881 19.003662
 141  1  12.146625 3.452595 3.101548
 142  1  11.872421 3.272205 19.003662
 143  1  12.168386 13.340272 3.101548
 144  1  11.894183 13.159881 19.003662
 145  1  2.165979 1.457908 10.871957
 146  1  1.891775 1.277517 26.774071
 147  1  2.187740 11.345584 10.871957
 148  1  1.913537 11.165193 26.774071
 149  1  12.012479 1.457908 10.871957
 150  1  11.738276 1.277517 26.774071
 151  1  12.034240 11.345584 10.871957
 152  1  11.760037 11.165193 26.774071
 153  1  7.235829 6.427512 2.987212
 154  1  6.961626 6.247122 18.889326
 155  1  7.257590 16.315188 2.987212
 156  1  6.983387 16.134798 18.889326
 157  1  17.082330 6.427512 2.987212
 158  1  16.808126 6.247122 18.889326
 159  1  17.104091 16.315188 2.987212
 160  1  16.829888 16.134798 18.889326
 161  1  1.431449 7.392301 10.897401
 162  1  1.157246 7.211911 26.799514
 163  1  1.453210 17.279977 10.897401
 164  1  1.179007 17.099587 26.799514
 165  1  11.277949 7.392301 10.897401
 166  1  11.003746 7.211911 26.799514
 167  1  11.299710 17.279977 10.897401
 168  1  11.025507 17.099587 26.799514
 169  1  6.321337 2.448873 2.990392
 170  1  6.047133 2.268483 18.892506
 171  1  6.343098 12.336549 2.990392
 172  1  6.068895 12.156159 18.892506
 173  1  16.167837 2.448873 2.990392
 174  1  15.893634 2.268483 18.892506
 175  1  16.189598 12.336549 2.990392
 176  1  15.915395 12.156159 18.892506
 177  1  8.142767 2.262985 10.948446
 178  1  7.868564 2.082594 26.850559
 179  1  8.164528 12.150661 10.948446
 180  1  7.890325 11.970270 26.850559
 181  1  17.989267 2.262985 10.948446
 182  1  17.715064 2.082594 26.850559
 183  1  18.011029 12.150661 10.948446
 184  1  17.736826 11.970270 26.850559
 185  1  3.346421 7.364496 3.080716
 186  1  3.072218 7.184105 18.982830
 187  1  3.368182 17.252172 3.080716
 188  1  3.093979 17.071781 18.982830
 189  1  13.192922 7.364496 3.080716
 190  1  12.918718 7.184105 18.982830
 191  1  13.214683 17.252172 3.080716
 192  1  12.940480 17.071781 18.982830
 193  1  2.205412 8.150189 12.919831
 194  1  1.931208 7.969798 28.821945
 195  1  2.227173 18.037865 12.919831
 196  1  1.952970 17.857475 28.821945
 197  1  12.051912 8.150189 12.919831
 198  1  11.777709 7.969798 28.821945
 199  1  12.073673 18.037865 12.919831
 200  1  11.799470 17.857475 28.821945
 201  1  7.218392 3.331712 4.919478
 202  1  6.944189 3.151322 20.821591
 203  1  7.240153 13.219388 4.919478
 204  1  6.965950 13.038998 20.821591
 205  1  17.064893 3.331712 4.919478
 206  1  16.790689 3.151322 20.821591
 207  1  17.086654 13.219388 4.919478
 208  1  16.812451 13.038998 20.821591
 209  1  7.352484 1.489593 12.959904
 210  1  7.078281 1.309203 28.862018
 211  1  7.374246 11.377270 12.959904
 212  1  7.100042 11.196879 28.862018
 213  1  17.198985 1.489593 12.959904
 214  1  16.924782 1.309203 28.862018
 215  1  17.220746 11.377270 12.959904
 216  1  16.946543 11.196879 28.862018
 217  1  2.406041 6.401520 4.938560
 218  1  2.131838 6.221130 20.840674
 219  1  2.427802 16.289196 4.938560
 220  1  2.153599 16.108806 20.840674
 221  1  12.252542 6.401520 4.938560
 222  1  11.978338 6.221130 20.840674
 223  1  12.274303 16.289196 4.938560
 224  1  12.000100 16.108806 20.840674
 225  1  8.078855 7.386316 12.959110
 226  1  7.804651 7.205925 28.861223
 227  1  8.100616 17.273992 12.959110
 228  1  7.826413 17.093601 28.861223
 229  1  17.925355 7.386316 12.959110
 230  1  17.651152 7.205925 28.861223
 231  1  17.947116 17.273992 12.959110
 232  1  17.672913 17.093601 28.861223
 233  1  3.296022 2.451643 4.916615
 234  1  3.021819 2.271252 20.818729
 235  1  3.317783 12.339319 4.916615
 236  1  3.043580 12.158928 20.818729
 237  1  13.142523 2.451643 4.916615
 238  1  12.868319 2.271252 20.818729
 239  1  13.164284 12.339319 4.916615
 240  1  12.890081 12.158928 20.818729
 241  1  1.492458 2.118755 12.959110
 242  1  1.218255 1.938365 28.861223
 243  1  1.514219 12.006431 12.959110
 244  1  1.240016 11.826041 28.861223
 245  1  11.338958 2.118755 12.959110
 246  1  11.064755 1.938365 28.861223
 247  1  11.360720 12.006431 12.959110
 248  1  11.086516 11.826041 28.861223
 249  1  6.382848 7.257952 4.950646
 250  1  6.108645 7.077562 20.852760
 251  1  6.404610 17.145629 4.950646
 252  1  6.130406 16.965238 20.852760
 253  1  16.229349 7.257952 4.950646
 254  1  15.955146 7.077562 20.852760
 255  1  16.251110 17.145629 4.950646
 256  1  15.976907 16.965238 20.852760
 257  2  9.680208 -0.030192 5.999867
 258  2  9.406005 -0.210582 21.901981
 259  2  9.701969 9.857485 5.999867
 260  2  9.427766 9.677094 21.901981
 261  2  19.526708 -0.030192 5.999867
 262  2  19.252505 -0.210582 21.901981
 263  2  19.548470 9.857485 5.999867
 264  2  19.274266 9.677094 21.901981
 265  2  4.708061 4.800997 13.969211
 266  2  4.433858 4.620606 29.871325
 267  2  4.729822 14.688673 13.969211
 268  2  4.455619 14.508282 29.871325
 269  2  14.554562 4.800997 13.969211
 270  2  14.280358 4.620606 29.871325
 271  2  14.576323 14.688673 13.969211
 272  2  14.302120 14.508282 29.871325
 273  2  -0.129430 9.713371 13.979707
 274  2  -0.403633 9.532981 29.881820
 275  2  -0.107668 19.601048 13.979707
 276  2  -0.381872 19.420657 29.881820
 277  2  9.717071 9.713371 13.979707
 278  2  9.442868 9.532981 29.881820
 279  2  9.738832 19.601048 13.979707
 280  2  9.464629 19.420657 29.881820
 281  2  4.816078 4.878621 5.984442
 282  2  4.541874 4.698231 21.886556
 283  2  4.837839 14.766298 5.984442
 284  2  4.563636 14.585907 21.886556
 285  2  14.662578 4.878621 5.984442
 286  2  14.388375 4.698231 21.886556
 287  2  14.684339 14.766298 5.984442
 288  2  14.410136 14.585907 21.886556
 289  2  0.245653 1.892637 0.014153
 290  2  -0.028550 1.712247 15.916266
 291  2  0.267414 11.780313 0.014153
 292  2  -0.006789 11.599923 15.916266
 293  2  10.092154 1.892637 0.014153
 294  2  9.817951 1.712247 15.916266
 295  2  10.113915 11.780313 0.014153
 296  2  9.839712 11.599923 15.916266
 297  2  5.012775 6.777821 7.939130
 298  2  4.738572 6.597430 23.841244
 299  2  5.034536 16.665497 7.939130
 300  2  4.760333 16.485106 23.841244
 301  2  14.859276 6.777821 7.939130
 302  2  14.585072 6.597430 23.841244
 303  2  14.881037 16.665497 7.939130
 304  2  14.606834 16.485106 23.841244
 305  2  9.558939 7.720590 15.829282
 306  2  9.284736 7.540200 31.731395
 307  2  9.580700 17.608266 15.829282
 308  2  9.306497 17.427876 31.731395
 309  2  19.405439 7.720590 15.829282
 310  2  19.131236 7.540200 31.731395
 311  2  19.427200 17.608266 15.829282
 312  2  19.152997 17.427876 31.731395
 313  2  4.568714 2.907876 7.843876
 314  2  4.294510 2.727486 23.745990
 315  2  4.590475 12.795553 7.843876
 316  2  4.316272 12.615162 23.745990
 317  2  14.415214 2.907876 7.843876
 318  2  14.141011 2.727486 23.745990
 319  2  14.436975 12.795553 7.843876
 320  2  14.162772 12.615162 23.745990
 321  2  7.722085 -0.055983 15.778236
 322  2  7.447882 -0.236373 31.680349
 323  2  7.743846 9.831694 15.778236
 324  2  7.469643 9.651303 31.680349
 325  2  17.568585 -0.055983 15.778236
 326  2  17.294382 -0.236373 31.680349
 327  2  17.590347 9.831694 15.778236
 328  2  17.316143 9.651303 31.680349
 329  2  2.858142 5.077183 7.883155
 330  2  2.583939 4.896792 23.785269
 331  2  2.879903 14.964859 7.883155
 332  2  2.605700 14.784468 23.785269
 333  2  12.704643 5.077183 7.883155
 334  2  12.430439 4.896792 23.785269
 335  2  12.726404 14.964859 7.883155
 336  2  12.452201 14.784468 23.785269
 337  2  2.042242 9.719300 0.042618
 338  2  1.768039 9.538909 15.944731
 339  2  2.064003 19.606976 0.042618
 340  2  1.789800 19.426586 15.944731
 341  2  11.888742 9.719300 0.042618
 342  2  11.614539 9.538909 15.944731
 343  2  11.910503 19.606976 0.042618
 344  2  11.636300 19.426586 15.944731
 345  2  6.722794 4.632952 7.855008
 346  2  6.448591 4.452561 23.757121
 347  2  6.744556 14.520628 7.855008
 348  2  6.470352 14.340237 23.757121
 349  2  16.569295 4.632952 7.855008
 350  2  16.295092 4.452561 23.757121
 351  2  16.591056 14.520628 7.855008
 352  2  16.316853 14.340237 23.757121
 353  2  9.398991 1.855113 7.967913
 354  2  9.124788 1.674722 23.870027
 355  2  9.420752 11.742789 7.967913
 356  2  9.146549 11.562398 23.870027
 357  2  19.245491 1.855113 7.967913
 358  2  18.971288 1.674722 23.870027
 359  2  19.267252 11.742789 7.967913
 360  2  18.993049 11.562398 23.870027
 361  2  4.421223 6.680691 15.891300
 362  2  4.147020 6.500301 31.793413
 363  2  4.442984 16.568368 15.891300
 364  2  4.168781 16.387977 31.793413
 365  2  14.267724 6.680691 15.891300
 366  2  13.993520 6.500301 31.793413
 367  2  14.289485 16.568368 15.891300
 368  2  14.015282 16.387977 31.793413
 369  2  0.081466 7.885017 7.828133
 370  2  -0.192737 7.704626 23.730247
 371  2  0.103228 17.772693 7.828133
 372  2  -0.170976 17.592302 23.730247
 373  2  9.927967 7.885017 7.828133
 374  2  9.653764 7.704626 23.730247
 375  2  9.949728 17.772693 7.828133
 376  2  9.675525 17.592302 23.730247
 377  2  4.601681 2.803831 15.751998
 378  2  4.327478 2.623440 31.654111
 379  2  4.623442 12.691507 15.751998
 380  2  4.349239 12.511117 31.654111
 381  2  14.448181 2.803831 15.751998
 382  2  14.173978 2.623440 31.654111
 383  2  14.469942 12.691507 15.751998
 384  2  14.195739 12.511117 31.654111
 385  2  1.736493 0.179077 7.939607
 386  2  1.462289 -0.001313 23.841721
 387  2  1.758254 10.066753 7.939607
 388  2  1.484051 9.886363 23.841721
 389  2  11.582993 0.179077 7.939607
 390  2  11.308790 -0.001313 23.841721
 391  2  11.604754 10.066753 7.939607
 392  2  11.330551 9.886363 23.841721
 393  2  6.740682 5.068853 0.066630
 394  2  6.466479 4.888463 15.968743
 395  2  6.762444 14.956529 0.066630
 396  2  6.488240 14.776139 15.968743
 397  2  16.587183 5.068853 0.066630
 398  2  16.312980 4.888463 15.968743
 399  2  16.608944 14.956529 0.066630
 400  2  16.334741 14.776139 15.968743
 401  2  7.743087 9.572051 7.863118
 402  2  7.468884 9.391660 23.765232
 403  2  7.764848 19.459727 7.863118
 404  2  7.490645 19.279336 23.765232
 405  2  17.589587 9.572051 7.863118
 406  2  17.315384 9.391660 23.765232
 407  2  17.611348 19.459727 7.863118
 408  2  17.337145 19.279336 23.765232
 409  2  2.597112 4.712681 15.705405
 410  2  2.322909 4.532290 31.607518
 411  2  2.618873 14.600357 15.705405
 412  2  2.344670 14.419967 31.607518
 413  2  12.443612 4.712681 15.705405
 414  2  12.169409 4.532290 31.607518
 415  2  12.465373 14.600357 15.705405
 416  2  12.191170 14.419967 31.607518
 417  3  2.318318 0.664874 5.645887
 418  3  2.044114 0.484483 21.548000
 419  3  2.340079 10.552550 5.645887
 420  3  2.065876 10.372159 21.548000
 421  3  12.164818 0.664874 5.645887
 422  3  11.890615 0.484483 21.548000
 423  3  12.186579 10.552550 5.645887
 424  3  11.912376 10.372159 21.548000
 425  3  7.010176 5.681642 13.755646
 426  3  6.735973 5.501252 29.657759
 427  3  7.031937 15.569318 13.755646
 428  3  6.757734 15.388928 29.657759
 429  3  16.856676 5.681642 13.755646
 430  3  16.582473 5.501252 29.657759
 431  3  16.878437 15.569318 13.755646
 432  3  16.604234 15.388928 29.657759
 433  3  7.412523 8.976439 5.769287
 434  3  7.138319 8.796048 21.671400
 435  3  7.434284 18.864115 5.769287
 436  3  7.160081 18.683724 21.671400
 437  3  17.259023 8.976439 5.769287
 438  3  16.984820 8.796048 21.671400
 439  3  17.280784 18.864115 5.769287
 440  3  17.006581 18.683724 21.671400
 441  3  2.605595 3.747118 13.825456
 442  3  2.331392 3.566727 29.727570
 443  3  2.627356 13.634794 13.825456
 444  3  2.353153 13.454403 29.727570
 445  3  12.452096 3.747118 13.825456
 446  3  12.177892 3.566727 29.727570
 447  3  12.473857 13.634794 13.825456
 448  3  12.199654 13.454403 29.727570
 449  3  8.959476 2.298318 5.689458
 450  3  8.685273 2.117927 21.591572
 451  3  8.981237 12.185994 5.689458
 452  3  8.707034 12.005603 21.591572
 453  3  18.805977 2.298318 5.689458
 454  3  18.531773 2.117927 21.591572
 455  3  18.827738 12.185994 5.689458
 456  3  18.553535 12.005603 21.591572
 457  3  3.900280 7.076099 13.720980
 458  3  3.626077 6.895709 29.623093
 459  3  3.922041 16.963775 13.720980
 460  3  3.647838 16.783385 29.623093
 461  3  13.746780 7.076099 13.720980
 462  3  13.472577 6.895709 29.623093
 463  3  13.768541 16.963775 13.720980
 464  3  13.494338 16.783385 29.623093
 465  3  0.662251 7.405089 5.734461
 466  3  0.388048 7.224698 21.636575
 467  3  0.684012 17.292765 5.734461
 468  3  0.409809 17.112374 21.636575
 469  3  10.508751 7.405089 5.734461
 470  3  10.234548 7.224698 21.636575
 471  3  10.530513 17.292765 5.734461
 472  3  10.256309 17.112374 21.636575
 473  3  5.698411 2.597110 13.796832
 474  3  5.424208 2.416720 29.698946
 475  3  5.720172 12.484786 13.796832
 476  3  5.445969 12.304396 29.698946
 477  3  15.544911 2.597110 13.796832
 478  3  15.270708 2.416720 29.698946
 479  3  15.566672 12.484786 13.796832
 480  3  15.292469 12.304396 29.698946
 481  3  7.348462 0.714242 2.200376
 482  3  7.074259 0.533851 18.102489
 483  3  7.370223 10.601918 2.200376
 484  3  7.096020 10.421528 18.102489
 485  3  17.194962 0.714242 2.200376
 486  3  16.920759 0.533851 18.102489
 487  3  17.216724 10.601918 2.200376
 488  3  16.942520 10.421528 18.102489
 489  3  2.458636 5.681697 10.072557
 490  3  2.184433 5.501306 25.974671
 491  3  2.480397 15.569373 10.072557
 492  3  2.206194 15.388982 25.974671
 493  3  12.305136 5.681697 10.072557
 494  3  12.030933 5.501306 25.974671
 495  3  12.326897 15.569373 10.072557
 496  3  12.052694 15.388982 25.974671
 497  3  2.396029 9.163179 2.373231
 498  3  2.121826 8.982788 18.275345
 499  3  2.417790 19.050855 2.373231
 500  3  2.143587 18.870464 18.275345
 501  3  12.242529 9.163179 2.373231
 502  3  11.968326 8.982788 18.275345
 503  3  12.264291 19.050855 2.373231
 504  3  11.990087 18.870464 18.275345
 505  3  7.070713 3.943853 10.114858
 506  3  6.796510 3.763463 26.016971
 507  3  7.092474 13.831530 10.114858
 508  3  6.818271 13.651139 26.016971
 509  3  16.917213 3.943853 10.114858
 510  3  16.643010 3.763463 26.016971
 511  3  16.938975 13.831530 10.114858
 512  3  16.664771 13.651139 26.016971
 513  3  0.534793 2.462478 2.348901
 514  3  0.260589 2.282088 18.251015
 515  3  0.556554 12.350154 2.348901
 516  3  0.282351 12.169764 18.251015
 517  3  10.381293 2.462478 2.348901
 518  3  10.107090 2.282088 18.251015
 519  3  10.403054 12.350154 2.348901
 520  3  10.128851 12.169764 18.251015
 521  3  5.570276 7.170346 10.145708
 522  3  5.296073 6.989956 26.047821
 523  3  5.592037 17.058023 10.145708
 524  3  5.317834 16.877632 26.047821
 525  3  15.416776 7.170346 10.145708
 526  3  15.142573 6.989956 26.047821
 527  3  15.438537 17.058023 10.145708
 528  3  15.164334 16.877632 26.047821
 529  3  8.959672 7.457608 2.202920
 530  3  8.685469 7.277218 18.105033
 531  3  8.981434 17.345284 2.202920
 532  3  8.707230 17.164894 18.105033
 533  3  18.806173 7.457608 2.202920
 534  3  18.531970 7.277218 18.105033
 535  3  18.827934 17.345284 2.202920
 536  3  18.553731 17.164894 18.105033
 537  3  3.779663 2.602501 10.009427
 538  3  3.505460 2.422110 25.911540
 539  3  3.801425 12.490177 10.009427
 540  3  3.527222 12.309786 25.911540
 541  3  13.626164 2.602501 10.009427
 542  3  13.351961 2.422110 25.911540
 543  3  13.647925 12.490177 10.009427
 544  3  13.373722 12.309786 25.911540
 545  3  7.364899 8.912691 10.151114
 546  3  7.090696 8.732301 26.053228
 547  3  7.386660 18.800367 10.151114
 548  3  7.112457 18.619977 26.053228
 549  3  17.211399 8.912691 10.151114
 550  3  16.937196 8.732301 26.053228
 551  3  17.233160 18.800367 10.151114
 552  3  16.958957 18.619977 26.053228
 553  3  2.256877 4.272315 2.384045
 554  3  1.982674 4.091925 18.286158
 555  3  2.278638 14.159991 2.384045
 556  3  2.004435 13.979601 18.286158
 557  3  12.103378 4.272315 2.384045
 558  3  11.829174 4.091925 18.286158
 559  3  12.125139 14.159991 2.384045
 560  3  11.850936 13.979601 18.286158
 561  3  2.069976 0.783682 10.025169
 562  3  1.795772 0.603291 25.927283
 563  3  2.091737 10.671358 10.025169
 564  3  1.817534 10.490967 25.927283
 565  3  11.916476 0.783682 10.025169
 566  3  11.642273 0.603291 25.927283
 567  3  11.938237 10.671358 10.025169
 568  3  11.664034 10.490967 25.927283
 569  3  7.190469 5.694965 2.182565
 570  3  6.916266 5.514575 18.084679
 571  3  7.212231 15.582641 2.182565
 572  3  6.938027 15.402251 18.084679
 573  3  17.036970 5.694965 2.182565
 574  3  16.762767 5.514575 18.084679
 575  3  17.058731 15.582641 2.182565
 576  3  16.784528 15.402251 18.084679
 577  3  0.724094 7.486616 10.079237
 578  3  0.449890 7.306226 25.981350
 579  3  0.745855 17.374292 10.079237
 580  3  0.471652 17.193902 25.981350
 581  3  10.570594 7.486616 10.079237
 582  3  10.296391 7.306226 25.981350
 583  3  10.592355 17.374292 10.079237
 584  3  10.318152 17.193902 25.981350
 585  3  5.537413 2.458941 2.233611
 586  3  5.263210 2.278550 18.135724
 587  3  5.559175 12.346617 2.233611
 588  3  5.284971 12.166227 18.135724
 589  3  15.383914 2.458941 2.233611
 590  3  15.109711 2.278550 18.135724
 591  3  15.405675 12.346617 2.233611
 592  3  15.131472 12.166227 18.135724
 593  3  8.852458 2.193660 10.130123
 594  3  8.578255 2.013270 26.032237
 595  3  8.874219 12.081337 10.130123
 596  3  8.600016 11.900946 26.032237
 597  3  18.698959 2.193660 10.130123
 598  3  18.424755 2.013270 26.032237
 599  3  18.720720 12.081337 10.130123
 600  3  18.446517 11.900946 26.032237
 601  3  4.118374 7.354605 2.313917
 602  3  3.844170 7.174214 18.216030
 603  3  4.140135 17.242281 2.313917
 604  3  3.865932 17.061890 18.216030
 605  3  13.964874 7.354605 2.313917
 606  3  13.690671 7.174214 18.216030
 607  3  13.986635 17.242281 2.313917
 608  3  13.712432 17.061890 18.216030
 609  3  2.148397 8.864986 13.737677
 610  3  1.874194 8.684595 29.639790
 611  3  2.170158 18.752662 13.737677
 612  3  1.895955 18.572271 29.639790
 613  3  11.994897 8.864986 13.737677
 614  3  11.720694 8.684595 29.639790
 615  3  12.016658 18.752662 13.737677
 616  3  11.742455 18.572271 29.639790
 617  3  7.178639 4.073743 5.716174
 618  3  6.904436 3.893352 21.618287
 619  3  7.200400 13.961419 5.716174
 620  3  6.926197 13.781028 21.618287
 621  3  17.025139 4.073743 5.716174
 622  3  16.750936 3.893352 21.618287
 623  3  17.046901 13.961419 5.716174
 624  3  16.772697 13.781028 21.618287
 625  3  7.422125 0.773563 13.776160
 626  3  7.147922 0.593172 29.678274
 627  3  7.443886 10.661239 13.776160
 628  3  7.169683 10.480848 29.678274
 629  3  17.268625 0.773563 13.776160
 630  3  16.994422 0.593172 29.678274
 631  3  17.290386 10.661239 13.776160
 632  3  17.016183 10.480848 29.678274
 633  3  2.429340 5.620537 5.692957
 634  3  2.155137 5.440147 21.595070
 635  3  2.451102 15.508214 5.692957
 636  3  2.176898 15.327823 21.595070
 637  3  12.275841 5.620537 5.692957
 638  3  12.001638 5.440147 21.595070
 639  3  12.297602 15.508214 5.692957
 640  3  12.023399 15.327823 21.595070
 641  3  8.808355 7.437719 13.762166
 642  3  8.534152 7.257328 29.664280
 643  3  8.830116 17.325395 13.762166
 644  3  8.555913 17.145005 29.664280
 645  3  18.654855 7.437719 13.762166
 646  3  18.380652 7.257328 29.664280
 647  3  18.676616 17.325395 13.762166
 648  3  18.402413 17.145005 29.664280
 649  3  4.080988 2.450400 5.671171
 650  3  3.806785 2.270010 21.573284
 651  3  4.102749 12.338076 5.671171
 652  3  3.828546 12.157686 21.573284
 653  3  13.927488 2.450400 5.671171
 654  3  13.653285 2.270010 21.573284
 655  3  13.949249 12.338076 5.671171
 656  3  13.675046 12.157686 21.573284
 657  3  0.825610 1.989478 13.808601
 658  3  0.551407 1.809087 29.710714
 659  3  0.847371 11.877154 13.808601
 660  3  0.573168 11.696764 29.710714
 661  3  10.672110 1.989478 13.808601
 662  3  10.397907 1.809087 29.710714
 663  3  10.693872 11.877154 13.808601
 664  3  10.419668 11.696764 29.710714
 665  3  5.648099 7.187207 5.748137
 666  3  5.373896 7.006816 21.650251
 667  3  5.669860 17.074883 5.748137
 668  3  5.395657 16.894492 21.650251
 669  3  15.494599 7.187207 5.748137
 670  3  15.220396 7.006816 21.650251
 671  3  15.516361 17.074883 5.748137
 672  3  15.242157 16.894492 21.650251
 673  3  4.941740 0.130213 10.808984
 674  3  4.667537 -0.050178 26.711098
 675  3  4.963501 10.017889 10.808984
 676  3  4.689298 9.837498 26.711098
 677  3  14.788240 0.130213 10.808984
 678  3  14.514037 -0.050178 26.711098
 679  3  14.810002 10.017889 10.808984
 680  3  14.535798 9.837498 26.711098
 681  3  4.571640 0.022472 12.366119
 682  3  4.297437 -0.157918 28.268233
 683  3  4.593401 9.910148 12.366119
 684  3  4.319198 9.729758 28.268233
 685  3  14.418140 0.022472 12.366119
 686  3  14.143937 -0.157918 28.268233
 687  3  14.439901 9.910148 12.366119
 688  3  14.165698 9.729758 28.268233
 689  3  0.269020 4.792673 11.974769
 690  3  -0.005183 4.612282 27.876882
 691  3  0.290781 14.680349 11.974769
 692  3  0.016578 14.499958 27.876882
 693  3  10.115520 4.792673 11.974769
 694  3  9.841317 4.612282 27.876882
 695  3  10.137282 14.680349 11.974769
 696  3  9.863078 14.499958 27.876882
 697  3  9.607406 4.933495 10.473609
 698  3  9.333203 4.753105 26.375723
 699  3  9.629168 14.821171 10.473609
 700  3  9.354964 14.640781 26.375723
 701  3  19.453907 4.933495 10.473609
 702  3  19.179704 4.753105 26.375723
 703  3  19.475668 14.821171 10.473609
 704  3  19.201465 14.640781 26.375723
 705  3  9.160986 3.218777 15.703178
 706  3  8.886782 3.038387 31.605292
 707  3  9.182747 13.106453 15.703178
 708  3  8.908544 12.926063 31.605292
 709  3  19.007486 3.218777 15.703178
 710  3  18.733283 3.038387 31.605292
 711  3  19.029247 13.106453 15.703178
 712  3  18.755044 12.926063 31.605292
 713  3  7.998199 4.320024 15.741821
 714  3  7.723995 4.139633 31.643934
 715  3  8.019960 14.207700 15.741821
 716  3  7.745757 14.027309 31.643934
 717  3  17.844699 4.320024 15.741821
 718  3  17.570496 4.139633 31.643934
 719  3  17.866460 14.207700 15.741821
 720  3  17.592257 14.027309 31.643934
 721  3  4.398636 8.318868 7.176147
 722  3  4.124433 8.138477 23.078261
 723  3  4.420397 18.206544 7.176147
 724  3  4.146194 18.026154 23.078261
 725  3  14.245136 8.318868 7.176147
 726  3  13.970933 8.138477 23.078261
 727  3  14.266897 18.206544 7.176147
 728  3  13.992694 18.026154 23.078261
 729  3  3.333555 9.422072 7.190459
 730  3  3.059352 9.241681 23.092572
 731  3  3.355316 19.309748 7.190459
 732  3  3.081113 19.129357 23.092572
 733  3  13.180056 9.422072 7.190459
 734  3  12.905852 9.241681 23.092572
 735  3  13.201817 19.309748 7.190459
 736  3  12.927614 19.129357 23.092572
 737  3  1.262715 4.488942 7.161676
 738  3  0.988512 4.308552 23.063789
 739  3  1.284476 14.376618 7.161676
 740  3  1.010273 14.196228 23.063789
 741  3  11.109215 4.488942 7.161676
 742  3  10.835012 4.308552 23.063789
 743  3  11.130977 14.376618 7.161676
 744  3  10.856773 14.196228 23.063789
 745  3  0.158831 3.428715 7.220195
 746  3  -0.115373 3.248324 23.122309
 747  3  0.180592 13.316391 7.220195
 748  3  -0.093611 13.136000 23.122309
 749  3  10.005331 3.428715 7.220195
 750  3  9.731128 3.248324 23.122309
 751  3  10.027092 13.316391 7.220195
 752  3  9.752889 13.136000 23.122309
 753  3  4.555530 0.333366 1.538211
 754  3  4.281327 0.152975 17.440325
 755  3  4.577291 10.221042 1.538211
 756  3  4.303088 10.040651 17.440325
 757  3  14.402030 0.333366 1.538211
 758  3  14.127827 0.152975 17.440325
 759  3  14.423791 10.221042 1.538211
 760  3  14.149588 10.040651 17.440325
 761  3  3.244995 1.030696 1.185025
 762  3  2.970791 0.850305 17.087139
 763  3  3.266756 10.918372 1.185025
 764  3  2.992553 10.737981 17.087139
 765  3  13.091495 1.030696 1.185025
 766  3  12.817292 0.850305 17.087139
 767  3  13.113256 10.918372 1.185025
 768  3  12.839053 10.737981 17.087139
 769  3  1.307799 5.586621 14.147951
 770  3  1.033596 5.406231 30.050065
 771  3  1.329560 15.474297 14.147951
 772  3  1.055357 15.293907 30.050065
 773  3  11.154300 5.586621 14.147951
 774  3  10.880096 5.406231 30.050065
 775  3  11.176061 15.474297 14.147951
 776  3  10.901858 15.293907 30.050065
 777  3  -0.087768 4.971515 14.356587
 778  3  -0.361971 4.791125 30.258700
 779  3  -0.066007 14.859191 14.356587
 780  3  -0.340210 14.678801 30.258700
 781  3  9.758732 4.971515 14.356587
 782  3  9.484529 4.791125 30.258700
 783  3  9.780493 14.859191 14.356587
 784  3  9.506290 14.678801 30.258700
 785  4  1.333612 1.462251 3.995406
 786  4  1.059409 1.281860 19.897520
 787  4  1.355373 11.349927 3.995406
 788  4  1.081170 11.169536 19.897520
 789  4  11.180113 1.462251 3.995406