conf.lmp (written by ASE) 

1184     atoms 
7  atom types

0.0      19.693071927756623  xlo xhi
0.0      19.775389462490345  ylo yhi
0.0      31.804227282049734  zlo zhi
   0.043530726645709492    -0.54839184646521044    -0.36076782251167772  xy xz yz

Atoms 

1   1   1   2.31394   1.46413   4.91053
2   1   1   2.03974   1.28374   20.81264
3   1   1   2.3357   11.35182   4.91053
4   1   1   2.06151   11.17144   20.81264
5   1   1   12.16047   1.46413   4.91053
6   1   1   11.88628   1.28374   20.81264
7   1   1   12.18224   11.35182   4.91053
8   1   1   11.90804   11.17144   20.81264
9   1   1   7.09474   6.40703   12.94864
10   1   1   6.82054   6.22665   28.85075
11   1   1   7.1165   16.29473   12.94864
12   1   1   6.84231   16.11435   28.85075
13   1   1   16.94127   6.40703   12.94864
14   1   1   16.66708   6.22665   28.85075
15   1   1   16.96304   16.29473   12.94864
16   1   1   16.68884   16.11435   28.85075
17   1   1   7.35947   8.25156   4.9578
18   1   1   7.08527   8.07117   20.85992
19   1   1   7.38124   18.13925   4.9578
20   1   1   7.10704   17.95887   20.85992
21   1   1   17.20601   8.25156   4.9578
22   1   1   16.93181   8.07117   20.85992
23   1   1   17.22777   18.13925   4.9578
24   1   1   16.95358   17.95887   20.85992
25   1   1   2.47796   3.09869   12.96604
26   1   1   2.20377   2.91831   28.86816
27   1   1   2.49973   12.98639   12.96604
28   1   1   2.22553   12.806   28.86816
29   1   1   12.3245   3.09869   12.96604
30   1   1   12.0503   2.91831   28.86816
31   1   1   12.34627   12.98639   12.96604
32   1   1   12.07207   12.806   28.86816
33   1   1   8.2019   2.34464   4.91249
34   1   1   7.9277   2.16426   20.81461
35   1   1   8.22366   12.23234   4.91249
36   1   1   7.94947   12.05195   20.81461
37   1   1   18.04843   2.34464   4.91249
38   1   1   17.77424   2.16426   20.81461
39   1   1   18.0702   12.23234   4.91249
40   1   1   17.796   12.05195   20.81461
41   1   1   3.1842   7.16161   12.90691
42   1   1   2.91   6.98122   28.80902
43   1   1   3.20596   17.0493   12.90691
44   1   1   2.93177   16.86892   28.80902
45   1   1   13.03073   7.16161   12.90691
46   1   1   12.75654   6.98122   28.80902
47   1   1   13.0525   17.0493   12.90691
48   1   1   12.7783   16.86892   28.80902
49   1   1   1.42414   7.38992   4.95628
50   1   1   1.14995   7.20954   20.85839
51   1   1   1.44591   17.27761   4.95628
52   1   1   1.17171   17.09723   20.85839
53   1   1   11.27068   7.38992   4.95628
54   1   1   10.99648   7.20954   20.85839
55   1   1   11.29244   17.27761   4.95628
56   1   1   11.01825   17.09723   20.85839
57   1   1   6.38995   2.48919   12.96741
58   1   1   6.11575   2.30881   28.86952
59   1   1   6.41171   12.37689   12.96741
60   1   1   6.13752   12.1965   28.86952
61   1   1   16.23648   2.48919   12.96741
62   1   1   15.96229   2.30881   28.86952
63   1   1   16.25825   12.37689   12.96741
64   1   1   15.98405   12.1965   28.86952
65   1   1   7.30859   1.46732   2.98508
66   1   1   7.0344   1.28693   18.88719
67   1   1   7.33036   11.35501   2.98508
68   1   1   7.05616   11.17463   18.88719
69   1   1   17.15513   1.46732   2.98508
70   1   1   16.88093   1.28693   18.88719
71   1   1   17.17689   11.35501   2.98508
72   1   1   16.9027   11.17463   18.88719
73   1   1   2.4004   6.39393   10.89102
74   1   1   2.12621   6.21355   26.79314
75   1   1   2.42217   16.28163   10.89102
76   1   1   2.14797   16.10124   26.79314
77   1   1   12.24694   6.39393   10.89102
78   1   1   11.97274   6.21355   26.79314
79   1   1   12.26871   16.28163   10.89102
80   1   1   11.99451   16.10124   26.79314
81   1   1   2.37271   8.35567   3.09971
82   1   1   2.09851   8.17528   19.00182
83   1   1   2.39447   18.24336   3.09971
84   1   1   2.12027   18.06298   19.00182
85   1   1   12.21924   8.35567   3.09971
86   1   1   11.94505   8.17528   19.00182
87   1   1   12.24101   18.24336   3.09971
88   1   1   11.96681   18.06298   19.00182
89   1   1   7.15342   3.24648   10.94296
90   1   1   6.87922   3.06609   26.84507
91   1   1   7.17518   13.13417   10.94296
92   1   1   6.90099   12.95379   26.84507
93   1   1   16.99995   3.24648   10.94296
94   1   1   16.72576   3.06609   26.84507
95   1   1   17.02172   13.13417   10.94296
96   1   1   16.74752   12.95379   26.84507
97   1   1   1.32433   2.46266   3.09848
98   1   1   1.05013   2.28227   19.0006
99   1   1   1.34609   12.35035   3.09848
100   1   1   1.0719   12.16997   19.0006
101   1   1   11.17086   2.46266   3.09848
102   1   1   10.89667   2.28227   19.0006
103   1   1   11.19263   12.35035   3.09848
104   1   1   10.91843   12.16997   19.0006
105   1   1   6.28964   7.22123   10.95879
106   1   1   6.01544   7.04085   26.8609
107   1   1   6.3114   17.10892   10.95879
108   1   1   6.03721   16.92854   26.8609
109   1   1   16.13617   7.22123   10.95879
110   1   1   15.86198   7.04085   26.8609
111   1   1   16.15794   17.10892   10.95879
112   1   1   15.88374   16.92854   26.8609
113   1   1   8.21146   7.42035   2.98993
114   1   1   7.93726   7.23997   18.89205
115   1   1   8.23322   17.30805   2.98993
116   1   1   7.95903   17.12766   18.89205
117   1   1   18.05799   7.42035   2.98993
118   1   1   17.7838   7.23997   18.89205
119   1   1   18.07976   17.30805   2.98993
120   1   1   17.80556   17.12766   18.89205
121   1   1   3.1295   2.4622   10.86735
122   1   1   2.85531   2.28181   26.76946
123   1   1   3.15127   12.34989   10.86735
124   1   1   2.87707   12.16951   26.76946
125   1   1   12.97604   2.4622   10.86735
126   1   1   12.70184   2.28181   26.76946
127   1   1   12.99781   12.34989   10.86735
128   1   1   12.72361   12.16951   26.76946
129   1   1   7.28515   8.19715   10.96365
130   1   1   7.01095   8.01677   26.86576
131   1   1   7.30691   18.08485   10.96365
132   1   1   7.03272   17.90446   26.86576
133   1   1   17.13168   8.19715   10.96365
134   1   1   16.85749   8.01677   26.86576
135   1   1   17.15345   18.08485   10.96365
136   1   1   16.87925   17.90446   26.86576
137   1   1   2.30009   3.45256   3.1015
138   1   1   2.02589   3.27218   19.00361
139   1   1   2.32186   13.34025   3.1015
140   1   1   2.04766   13.15987   19.00361
141   1   1   12.14663   3.45256   3.1015
142   1   1   11.87243   3.27218   19.00361
143   1   1   12.16839   13.34025   3.1015
144   1   1   11.8942   13.15987   19.00361
145   1   1   2.16599   1.45795   10.87193
146   1   1   1.89179   1.27756   26.77405
147   1   1   2.18775   11.34564   10.87193
148   1   1   1.91356   11.16526   26.77405
149   1   1   12.01253   1.45795   10.87193
150   1   1   11.73833   1.27756   26.77405
151   1   1   12.03429   11.34564   10.87193
152   1   1   11.76009   11.16526   26.77405
153   1   1   7.2359   6.42751   2.98716
154   1   1   6.9617   6.24713   18.88927
155   1   1   7.25766   16.3152   2.98716
156   1   1   6.98347   16.13482   18.88927
157   1   1   17.08243   6.42751   2.98716
158   1   1   16.80824   6.24713   18.88927
159   1   1   17.1042   16.3152   2.98716
160   1   1   16.83   16.13482   18.88927
161   1   1   1.43144   7.39228   10.89737
162   1   1   1.15724   7.2119   26.79949
163   1   1   1.4532   17.27997   10.89737
164   1   1   1.17901   17.09959   26.79949
165   1   1   11.27797   7.39228   10.89737
166   1   1   11.00378   7.2119   26.79949
167   1   1   11.29974   17.27997   10.89737
168   1   1   11.02554   17.09959   26.79949
169   1   1   6.32136   2.44889   2.99032
170   1   1   6.04716   2.2685   18.89243
171   1   1   6.34312   12.33658   2.99032
172   1   1   6.06893   12.1562   18.89243
173   1   1   16.16789   2.44889   2.99032
174   1   1   15.8937   2.2685   18.89243
175   1   1   16.18966   12.33658   2.99032
176   1   1   15.91546   12.1562   18.89243
177   1   1   8.1428   2.26299   10.9484
178   1   1   7.86861   2.08261   26.85051
179   1   1   8.16457   12.15069   10.9484
180   1   1   7.89037   11.9703   26.85051
181   1   1   17.98934   2.26299   10.9484
182   1   1   17.71514   2.08261   26.85051
183   1   1   18.0111   12.15069   10.9484
184   1   1   17.73691   11.9703   26.85051
185   1   1   3.34643   7.3645   3.08066
186   1   1   3.07223   7.18412   18.98278
187   1   1   3.36819   17.2522   3.08066
188   1   1   3.094   17.07181   18.98278
189   1   1   13.19296   7.3645   3.08066
190   1   1   12.91877   7.18412   18.98278
191   1   1   13.21473   17.2522   3.08066
192   1   1   12.94053   17.07181   18.98278
193   1   1   2.20541   8.15022   12.91981
194   1   1   1.93121   7.96984   28.82192
195   1   1   2.22717   18.03792   12.91981
196   1   1   1.95298   17.85754   28.82192
197   1   1   12.05194   8.15022   12.91981
198   1   1   11.77775   7.96984   28.82192
199   1   1   12.07371   18.03792   12.91981
200   1   1   11.79951   17.85754   28.82192
201   1   1   7.21844   3.33169   4.91949
202   1   1   6.94425   3.1513   20.8216
203   1   1   7.24021   13.21938   4.91949
204   1   1   6.96601   13.039   20.8216
205   1   1   17.06498   3.33169   4.91949
206   1   1   16.79078   3.1513   20.8216
207   1   1   17.08674   13.21938   4.91949
208   1   1   16.81255   13.039   20.8216
209   1   1   7.35249   1.48958   12.95994
210   1   1   7.0783   1.3092   28.86206
211   1   1   7.37426   11.37727   12.95994
212   1   1   7.10006   11.19689   28.86206
213   1   1   17.19903   1.48958   12.95994
214   1   1   16.92483   1.3092   28.86206
215   1   1   17.22079   11.37727   12.95994
216   1   1   16.9466   11.19689   28.86206
217   1   1   2.40609   6.40152   4.93849
218   1   1   2.1319   6.22113   20.8406
219   1   1   2.42786   16.28921   4.93849
220   1   1   2.15366   16.10883   20.8406
221   1   1   12.25263   6.40152   4.93849
222   1   1   11.97843   6.22113   20.8406
223   1   1   12.27439   16.28921   4.93849
224   1   1   12.0002   16.10883   20.8406
225   1   1   8.07889   7.38631   12.95909
226   1   1   7.8047   7.20592   28.8612
227   1   1   8.10066   17.274   12.95909
228   1   1   7.82646   17.09362   28.8612
229   1   1   17.92543   7.38631   12.95909
230   1   1   17.65123   7.20592   28.8612
231   1   1   17.9472   17.274   12.95909
232   1   1   17.673   17.09362   28.8612
233   1   1   3.29606   2.45164   4.91664
234   1   1   3.02187   2.27126   20.81876
235   1   1   3.31783   12.33934   4.91664
236   1   1   3.04363   12.15895   20.81876
237   1   1   13.1426   2.45164   4.91664
238   1   1   12.8684   2.27126   20.81876
239   1   1   13.16437   12.33934   4.91664
240   1   1   12.89017   12.15895   20.81876
241   1   1   1.49245   2.11871   12.95905
242   1   1   1.21825   1.93833   28.86117
243   1   1   1.51421   12.00641   12.95905
244   1   1   1.24002   11.82602   28.86117
245   1   1   11.33898   2.11871   12.95905
246   1   1   11.06479   1.93833   28.86117
247   1   1   11.36075   12.00641   12.95905
248   1   1   11.08655   11.82602   28.86117
249   1   1   6.3829   7.25794   4.95064
250   1   1   6.1087   7.07755   20.85275
251   1   1   6.40466   17.14563   4.95064
252   1   1   6.13047   16.96525   20.85275
253   1   1   16.22943   7.25794   4.95064
254   1   1   15.95524   7.07755   20.85275
255   1   1   16.2512   17.14563   4.95064
256   1   1   15.977   16.96525   20.85275
257   1   2   19.52681   -0.03024   5.99988
258   1   2   19.25261   -0.21062   21.90199
259   1   2   19.54857   9.85746   5.99988
260   1   2   19.27438   9.67707   21.90199
261   1   2   9.68027   -0.03024   5.99988
262   1   2   9.40608   -0.21062   21.90199
263   1   2   9.70204   9.85746   5.99988
264   1   2   9.42784   9.67707   21.90199
265   1   2   4.70811   4.80096   13.96916
266   1   2   4.43391   4.62058   29.87128
267   1   2   4.72987   14.68866   13.96916
268   1   2   4.45568   14.50828   29.87128
269   1   2   14.55464   4.80096   13.96916
270   1   2   14.28045   4.62058   29.87128
271   1   2   14.57641   14.68866   13.96916
272   1   2   14.30221   14.50828   29.87128
273   1   2   -0.10766   19.60107   13.97976
274   1   2   -0.38186   19.42069   29.88187
275   1   2   -0.12943   9.71338   13.97976
276   1   2   -0.40362   9.53299   29.88187
277   1   2   9.73887   19.60107   13.97976
278   1   2   9.46468   19.42069   29.88187
279   1   2   9.71711   9.71338   13.97976
280   1   2   9.44291   9.53299   29.88187
281   1   2   4.81607   4.87866   5.98447
282   1   2   4.54187   4.69827   21.88659
283   1   2   4.83784   14.76635   5.98447
284   1   2   4.56364   14.58597   21.88659
285   1   2   14.66261   4.87866   5.98447
286   1   2   14.38841   4.69827   21.88659
287   1   2   14.68437   14.76635   5.98447
288   1   2   14.41018   14.58597   21.88659
289   1   2   0.24567   1.89261   0.01412
290   1   2   -0.02853   1.71222   15.91623
291   1   2   0.26743   11.7803   0.01412
292   1   2   -0.00676   11.59992   15.91623
293   1   2   10.0922   1.89261   0.01412
294   1   2   9.81801   1.71222   15.91623
295   1   2   10.11397   11.7803   0.01412
296   1   2   9.83977   11.59992   15.91623
297   1   2   5.0128   6.7778   7.93917
298   1   2   4.73861   6.59742   23.84128
299   1   2   5.03457   16.6655   7.93917
300   1   2   4.76037   16.48511   23.84128
301   1   2   14.85934   6.7778   7.93917
302   1   2   14.58514   6.59742   23.84128
303   1   2   14.8811   16.6655   7.93917
304   1   2   14.60691   16.48511   23.84128
305   1   2   9.28475   7.54027   31.7314
306   1   2   9.55894   7.72065   15.82929
307   1   2   9.30651   17.42796   31.7314
308   1   2   9.58071   17.60835   15.82929
309   1   2   19.13128   7.54027   31.7314
310   1   2   19.40548   7.72065   15.82929
311   1   2   19.15305   17.42796   31.7314
312   1   2   19.42724   17.60835   15.82929
313   1   2   4.56874   2.90787   7.84392
314   1   2   4.29454   2.72748   23.74603
315   1   2   4.5905   12.79556   7.84392
316   1   2   4.31631   12.61518   23.74603
317   1   2   14.41527   2.90787   7.84392
318   1   2   14.14108   2.72748   23.74603
319   1   2   14.43704   12.79556   7.84392
320   1   2   14.16284   12.61518   23.74603
321   1   2   7.44794   -0.23638   31.68038
322   1   2   7.72214   -0.05599   15.77827
323   1   2   7.46971   9.65132   31.68038
324   1   2   7.7439   9.8317   15.77827
325   1   2   17.29448   -0.23638   31.68038
326   1   2   17.56867   -0.05599   15.77827
327   1   2   17.31624   9.65132   31.68038
328   1   2   17.59044   9.8317   15.77827
329   1   2   2.85814   5.07717   7.88307
330   1   2   2.58395   4.89679   23.78518
331   1   2   2.87991   14.96487   7.88307
332   1   2   2.60571   14.78448   23.78518
333   1   2   12.70468   5.07717   7.88307
334   1   2   12.43048   4.89679   23.78518
335   1   2   12.72645   14.96487   7.88307
336   1   2   12.45225   14.78448   23.78518
337   1   2   2.04223   9.71932   0.04265
338   1   2   1.76804   9.53894   15.94476
339   1   2   2.064   19.60702   0.04265
340   1   2   1.7898   19.42664   15.94476
341   1   2   11.88877   9.71932   0.04265
342   1   2   11.61457   9.53894   15.94476
343   1   2   11.91053   19.60702   0.04265
344   1   2   11.63634   19.42664   15.94476
345   1   2   6.72282   4.633   7.85507
346   1   2   6.44863   4.45261   23.75718
347   1   2   6.74459   14.52069   7.85507
348   1   2   6.47039   14.34031   23.75718
349   1   2   16.56936   4.633   7.85507
350   1   2   16.29516   4.45261   23.75718
351   1   2   16.59112   14.52069   7.85507
352   1   2   16.31693   14.34031   23.75718
353   1   2   9.39899   1.85512   7.96794
354   1   2   9.12479   1.67474   23.87005
355   1   2   9.42075   11.74282   7.96794
356   1   2   9.14656   11.56243   23.87005
357   1   2   19.24552   1.85512   7.96794
358   1   2   18.97133   1.67474   23.87005
359   1   2   19.26729   11.74282   7.96794
360   1   2   18.99309   11.56243   23.87005
361   1   2   4.14708   6.50035   31.79341
362   1   2   4.42128   6.68074   15.8913
363   1   2   4.16885   16.38805   31.79341
364   1   2   4.44304   16.56843   15.8913
365   1   2   13.99362   6.50035   31.79341
366   1   2   14.26781   6.68074   15.8913
367   1   2   14.01538   16.38805   31.79341
368   1   2   14.28958   16.56843   15.8913
369   1   2   0.08151   7.885   7.82812
370   1   2   -0.19269   7.70462   23.73023
371   1   2   0.10327   17.7727   7.82812
372   1   2   -0.17092   17.59231   23.73023
373   1   2   9.92804   7.885   7.82812
374   1   2   9.65385   7.70462   23.73023
375   1   2   9.94981   17.7727   7.82812
376   1   2   9.67561   17.59231   23.73023
377   1   2   4.32748   2.62341   31.65411
378   1   2   4.60168   2.80379   15.75199
379   1   2   4.34925   12.5111   31.65411
380   1   2   4.62344   12.69149   15.75199
381   1   2   14.17402   2.62341   31.65411
382   1   2   14.44821   2.80379   15.75199
383   1   2   14.19578   12.5111   31.65411
384   1   2   14.46998   12.69149   15.75199
385   1   2   1.73647   0.17904   7.93963
386   1   2   1.46227   -0.00135   23.84175
387   1   2   1.75823   10.06673   7.93963
388   1   2   1.48404   9.88635   23.84175
389   1   2   11.583   0.17904   7.93963
390   1   2   11.30881   -0.00135   23.84175
391   1   2   11.60477   10.06673   7.93963
392   1   2   11.33057   9.88635   23.84175
393   1   2   6.74075   5.06889   0.06661
394   1   2   6.46656   4.88851   15.96873
395   1   2   6.76252   14.95659   0.06661
396   1   2   6.48832   14.7762   15.96873
397   1   2   16.58729   5.06889   0.06661
398   1   2   16.31309   4.88851   15.96873
399   1   2   16.60905   14.95659   0.06661
400   1   2   16.33486   14.7762   15.96873
401   1   2   7.74314   9.57205   7.86315
402   1   2   7.46894   9.39166   23.76527
403   1   2   7.7649   19.45974   7.86315
404   1   2   7.49071   19.27936   23.76527
405   1   2   17.58968   9.57205   7.86315
406   1   2   17.31548   9.39166   23.76527
407   1   2   17.61144   19.45974   7.86315
408   1   2   17.33724   19.27936   23.76527
409   1   2   2.32295   4.53226   31.60745
410   1   2   2.59715   4.71265   15.70534
411   1   2   2.34472   14.41996   31.60745
412   1   2   2.61891   14.60034   15.70534
413   1   2   12.16949   4.53226   31.60745
414   1   2   12.44368   4.71265   15.70534
415   1   2   12.19125   14.41996   31.60745
416   1   2   12.46545   14.60034   15.70534
417   1   3   2.31835   0.6649   5.64587
418   1   3   2.04416   0.48452   21.54799
419   1   3   2.34012   10.5526   5.64587
420   1   3   2.06592   10.37221   21.54799
421   1   3   12.16489   0.6649   5.64587
422   1   3   11.89069   0.48452   21.54799
423   1   3   12.18665   10.5526   5.64587
424   1   3   11.91246   10.37221   21.54799
425   1   3   7.01018   5.68165   13.75567
426   1   3   6.73598   5.50127   29.65778
427   1   3   7.03195   15.56935   13.75567
428   1   3   6.75775   15.38896   29.65778
429   1   3   16.85672   5.68165   13.75567
430   1   3   16.58252   5.50127   29.65778
431   1   3   16.87848   15.56935   13.75567
432   1   3   16.60429   15.38896   29.65778
433   1   3   7.41252   8.97641   5.76924
434   1   3   7.13832   8.79602   21.67136
435   1   3   7.43428   18.8641   5.76924
436   1   3   7.16009   18.68372   21.67136
437   1   3   17.25905   8.97641   5.76924
438   1   3   16.98486   8.79602   21.67136
439   1   3   17.28082   18.8641   5.76924
440   1   3   17.00662   18.68372   21.67136
441   1   3   2.60559   3.74714   13.82549
442   1   3   2.33139   3.56676   29.72761
443   1   3   2.62736   13.63484   13.82549
444   1   3   2.35316   13.45446   29.72761
445   1   3   12.45213   3.74714   13.82549
446   1   3   12.17793   3.56676   29.72761
447   1   3   12.47389   13.63484   13.82549
448   1   3   12.1997   13.45446   29.72761
449   1   3   8.95955   2.29832   5.68942
450   1   3   8.68535   2.11794   21.59153
451   1   3   8.98131   12.18601   5.68942
452   1   3   8.70712   12.00563   21.59153
453   1   3   18.80608   2.29832   5.68942
454   1   3   18.53189   2.11794   21.59153
455   1   3   18.82785   12.18601   5.68942
456   1   3   18.55365   12.00563   21.59153
457   1   3   3.90033   7.07609   13.721
458   1   3   3.62614   6.8957   29.62312
459   1   3   3.9221   16.96378   13.721
460   1   3   3.6479   16.7834   29.62312
461   1   3   13.74687   7.07609   13.721
462   1   3   13.47267   6.8957   29.62312
463   1   3   13.76863   16.96378   13.721
464   1   3   13.49444   16.7834   29.62312
465   1   3   0.66228   7.40513   5.73438
466   1   3   0.38809   7.22474   21.63649
467   1   3   0.68405   17.29282   5.73438
468   1   3   0.40985   17.11244   21.63649
469   1   3   10.50882   7.40513   5.73438
470   1   3   10.23462   7.22474   21.63649
471   1   3   10.53058   17.29282   5.73438
472   1   3   10.25639   17.11244   21.63649
473   1   3   5.69848   2.59712   13.79677
474   1   3   5.42428   2.41674   29.69888
475   1   3   5.72024   12.48482   13.79677
476   1   3   5.44605   12.30443   29.69888
477   1   3   15.54501   2.59712   13.79677
478   1   3   15.27082   2.41674   29.69888
479   1   3   15.56678   12.48482   13.79677
480   1   3   15.29258   12.30443   29.69888
481   1   3   7.34849   0.71429   2.20033
482   1   3   7.07429   0.5339   18.10244
483   1   3   7.37026   10.60198   2.20033
484   1   3   7.09606   10.4216   18.10244
485   1   3   17.19503   0.71429   2.20033
486   1   3   16.92083   0.5339   18.10244
487   1   3   17.21679   10.60198   2.20033
488   1   3   16.9426   10.4216   18.10244
489   1   3   2.45866   5.68172   10.07257
490   1   3   2.18446   5.50133   25.97468
491   1   3   2.48042   15.56941   10.07257
492   1   3   2.20623   15.38903   25.97468
493   1   3   12.3052   5.68172   10.07257
494   1   3   12.031   5.50133   25.97468
495   1   3   12.32696   15.56941   10.07257
496   1   3   12.05276   15.38903   25.97468
497   1   3   2.39608   9.16317   2.37315
498   1   3   2.12188   8.98279   18.27526
499   1   3   2.41784   19.05087   2.37315
500   1   3   2.14364   18.87048   18.27526
501   1   3   12.24261   9.16317   2.37315
502   1   3   11.96842   8.98279   18.27526
503   1   3   12.26438   19.05087   2.37315
504   1   3   11.99018   18.87048   18.27526
505   1   3   7.07079   3.94381   10.11489
506   1   3   6.79659   3.76343   26.017
507   1   3   7.09255   13.83151   10.11489
508   1   3   6.81836   13.65112   26.017
509   1   3   16.91732   3.94381   10.11489
510   1   3   16.64313   3.76343   26.017
511   1   3   16.93909   13.83151   10.11489
512   1   3   16.66489   13.65112   26.017
513   1   3   0.53479   2.46244   2.34895
514   1   3   0.2606   2.28206   18.25106
515   1   3   0.55656   12.35014   2.34895
516   1   3   0.28236   12.16975   18.25106
517   1   3   10.38133   2.46244   2.34895
518   1   3   10.10713   2.28206   18.25106
519   1   3   10.40309   12.35014   2.34895
520   1   3   10.1289   12.16975   18.25106
521   1   3   5.57029   7.17037   10.14574
522   1   3   5.2961   6.98998   26.04786
523   1   3   5.59206   17.05806   10.14574
524   1   3   5.31786   16.87768   26.04786
525   1   3   15.41683   7.17037   10.14574
526   1   3   15.14263   6.98998   26.04786
527   1   3   15.43859   17.05806   10.14574
528   1   3   15.1644   16.87768   26.04786
529   1   3   8.95975   7.45762   2.20295
530   1   3   8.68555   7.27724   18.10506
531   1   3   8.98151   17.34532   2.20295
532   1   3   8.70732   17.16494   18.10506
533   1   3   18.80628   7.45762   2.20295
534   1   3   18.53209   7.27724   18.10506
535   1   3   18.82805   17.34532   2.20295
536   1   3   18.55385   17.16494   18.10506
537   1   3   3.77969   2.60253   10.00939
538   1   3   3.5055   2.42215   25.9115
539   1   3   3.80146   12.49022   10.00939
540   1   3   3.52726   12.30984   25.9115
541   1   3   13.62623   2.60253   10.00939
542   1   3   13.35203   2.42215   25.9115
543   1   3   13.64799   12.49022   10.00939
544   1   3   13.3738   12.30984   25.9115
545   1   3   7.36488   8.91271   10.15115
546   1   3   7.09068   8.73232   26.05326
547   1   3   7.38665   18.8004   10.15115
548   1   3   7.11245   18.62002   26.05326
549   1   3   17.21142   8.91271   10.15115
550   1   3   16.93722   8.73232   26.05326
551   1   3   17.23318   18.8004   10.15115
552   1   3   16.95899   18.62002   26.05326
553   1   3   2.25688   4.27231   2.38409
554   1   3   1.98268   4.09193   18.2862
555   1   3   2.27864   14.16001   2.38409
556   1   3   2.00445   13.97962   18.2862
557   1   3   12.10341   4.27231   2.38409
558   1   3   11.82922   4.09193   18.2862
559   1   3   12.12518   14.16001   2.38409
560   1   3   11.85098   13.97962   18.2862
561   1   3   2.06999   0.78368   10.02521
562   1   3   1.79579   0.6033   25.92732
563   1   3   2.09175   10.67138   10.02521
564   1   3   1.81756   10.49099   25.92732
565   1   3   11.91652   0.78368   10.02521
566   1   3   11.64233   0.6033   25.92732
567   1   3   11.93829   10.67138   10.02521
568   1   3   11.66409   10.49099   25.92732
569   1   3   7.19046   5.69497   2.18251
570   1   3   6.91627   5.51459   18.08462
571   1   3   7.21223   15.58267   2.18251
572   1   3   6.93803   15.40229   18.08462
573   1   3   17.037   5.69497   2.18251
574   1   3   16.76281   5.51459   18.08462
575   1   3   17.05877   15.58267   2.18251
576   1   3   16.78457   15.40229   18.08462
577   1   3   0.72415   7.48667   10.07916
578   1   3   0.44995   7.30629   25.98127
579   1   3   0.74592   17.37436   10.07916
580   1   3   0.47172   17.19398   25.98127
581   1   3   10.57069   7.48667   10.07916
582   1   3   10.29649   7.30629   25.98127
583   1   3   10.59245   17.37436   10.07916
584   1   3   10.31826   17.19398   25.98127
585   1   3   5.53743   2.45893   2.23354
586   1   3   5.26324   2.27854   18.13565
587   1   3   5.5592   12.34662   2.23354
588   1   3   5.285   12.16624   18.13565
589   1   3   15.38397   2.45893   2.23354
590   1   3   15.10977   2.27854   18.13565
591   1   3   15.40574   12.34662   2.23354
592   1   3   15.13154   12.16624   18.13565
593   1   3   8.85246   2.19362   10.13014
594   1   3   8.57826   2.01323   26.03225
595   1   3   8.87423   12.08131   10.13014
596   1   3   8.60003   11.90093   26.03225
597   1   3   18.699   2.19362   10.13014
598   1   3   18.4248   2.01323   26.03225
599   1   3   18.72076   12.08131   10.13014
600   1   3   18.44657   11.90093   26.03225
601   1   3   4.11836   7.3546   2.31391
602   1   3   3.84417   7.17422   18.21602
603   1   3   4.14013   17.2423   2.31391
604   1   3   3.86593   17.06191   18.21602
605   1   3   13.9649   7.3546   2.31391
606   1   3   13.6907   7.17422   18.21602
607   1   3   13.98666   17.2423   2.31391
608   1   3   13.71247   17.06191   18.21602
609   1   3   2.14845   8.86504   13.73762
610   1   3   1.87425   8.68466   29.63973
611   1   3   2.17021   18.75274   13.73762
612   1   3   1.89602   18.57235   29.63973
613   1   3   11.99498   8.86504   13.73762
614   1   3   11.72079   8.68466   29.63973
615   1   3   12.01675   18.75274   13.73762
616   1   3   11.74255   18.57235   29.63973
617   1   3   7.17865   4.07375   5.71617
618   1   3   6.90446   3.89337   21.61829
619   1   3   7.20042   13.96145   5.71617
620   1   3   6.92622   13.78106   21.61829
621   1   3   17.02519   4.07375   5.71617
622   1   3   16.75099   3.89337   21.61829
623   1   3   17.04695   13.96145   5.71617
624   1   3   16.77276   13.78106   21.61829
625   1   3   7.42219   0.77352   13.77623
626   1   3   7.148   0.59313   29.67834
627   1   3   7.44396   10.66121   13.77623
628   1   3   7.16976   10.48083   29.67834
629   1   3   17.26873   0.77352   13.77623
630   1   3   16.99453   0.59313   29.67834
631   1   3   17.2905   10.66121   13.77623
632   1   3   17.0163   10.48083   29.67834
633   1   3   2.42939   5.62059   5.69295
634   1   3   2.15519   5.44021   21.59506
635   1   3   2.45116   15.50829   5.69295
636   1   3   2.17696   15.32791   21.59506
637   1   3   12.27593   5.62059   5.69295
638   1   3   12.00173   5.44021   21.59506
639   1   3   12.29769   15.50829   5.69295
640   1   3   12.0235   15.32791   21.59506
641   1   3   8.80844   7.43776   13.76216
642   1   3   8.53425   7.25738   29.66427
643   1   3   8.83021   17.32545   13.76216
644   1   3   8.55601   17.14507   29.66427
645   1   3   18.65498   7.43776   13.76216
646   1   3   18.38078   7.25738   29.66427
647   1   3   18.67674   17.32545   13.76216
648   1   3   18.40255   17.14507   29.66427
649   1   3   4.08099   2.45035   5.67112
650   1   3   3.80679   2.26997   21.57323
651   1   3   4.10275   12.33805   5.67112
652   1   3   3.82855   12.15767   21.57323
653   1   3   13.92752   2.45035   5.67112
654   1   3   13.65333   2.26997   21.57323
655   1   3   13.94929   12.33805   5.67112
656   1   3   13.67509   12.15767   21.57323
657   1   3   0.82558   1.98948   13.80858
658   1   3   0.55139   1.8091   29.71069
659   1   3   0.84735   11.87718   13.80858
660   1   3   0.57315   11.6968   29.71069
661   1   3   10.67212   1.98948   13.80858
662   1   3   10.39792   1.8091   29.71069
663   1   3   10.69388   11.87718   13.80858
664   1   3   10.41969   11.6968   29.71069
665   1   3   5.6481   7.1872   5.74821
666   1   3   5.3739   7.00682   21.65032
667   1   3   5.66986   17.07489   5.74821
668   1   3   5.39567   16.89451   21.65032
669   1   3   15.49463   7.1872   5.74821
670   1   3   15.22044   7.00682   21.65032
671   1   3   15.5164   17.07489   5.74821
672   1   3   15.2422   16.89451   21.65032
673   1   4   1.33363   1.46223   3.99541
674   1   4   1.05943   1.28185   19.89752
675   1   4   1.35539   11.34993   3.99541
676   1   4   1.0812   11.16955   19.89752
677   1   4   11.18016   1.46223   3.99541
678   1   4   10.90597   1.28185   19.89752
679   1   4   11.20193   11.34993   3.99541
680   1   4   10.92773   11.16955   19.89752
681   1   4   6.20196   6.31726   11.94134
682   1   4   5.92776   6.13688   27.84346
683   1   4   6.22373   16.20496   11.94134
684   1   4   5.94953   16.02457   27.84346
685   1   4   16.0485   6.31726   11.94134
686   1   4   15.7743   6.13688   27.84346
687   1   4   16.07026   16.20496   11.94134
688   1   4   15.79607   16.02457   27.84346